                         Program Version 6.1.0  -  RELEASE   -
|  1> ! B3LYP 6-31G* Opt TightSCF
|  2>
|  3> * xyz 0 1
|  4> Be       0.000000    0.000000    0.000000
|  5> H        0.000000    0.000000    1.300000
|  6> H        0.000000    0.000000   -1.300000
|  7> *
|  8>
|  9>                          ****END OF INPUT****
 Total Charge           Charge          ....    0
 Multiplicity           Mult            ....    1
 Number of Electrons    NEL             ....    6
FINAL SINGLE POINT ENERGY       -15.895474938305
FINAL SINGLE POINT ENERGY       -15.895821023294
FINAL SINGLE POINT ENERGY       -15.896044909851
FINAL SINGLE POINT ENERGY       -15.896045375941
                    ***********************HURRAY********************

CARTESIAN COORDINATES (ANGSTROEM)
---------------------------------
  Be     0.000000   -0.000000   -0.000000
  H     -0.000000    0.000000    1.330909
  H     -0.000000    0.000000   -1.330909

 Multiplicity           Mult            ....    1
 Number of Electrons    NEL             ....    6
 Basis Dimension        Dim             ....   18

ORBITAL ENERGIES
----------------

  NO   OCC          E(Eh)            E(eV)
   0   2.0000      -4.026062      -109.5547
   1   2.0000      -0.345846        -9.4110
   2   2.0000      -0.309542        -8.4231
   3   0.0000      -0.022026        -0.5994
   4   0.0000      -0.022026        -0.5994
   5   0.0000       0.090254         2.4559
   6   0.0000       0.193564         5.2671
   7   0.0000       0.307647         8.3715

MULLIKEN ATOMIC CHARGES
-----------------------
   0 Be:    0.054538
   1 H :   -0.027269
   2 H :   -0.027269
Sum of atomic charges:    0.0000000

LOEWDIN ATOMIC CHARGES
----------------------
   0 Be:    0.008869
   1 H :   -0.004435
   2 H :   -0.004435

  Mayer bond orders larger than 0.100000
B(  0-Be,  1-H ) :   0.9993 B(  0-Be,  2-H ) :   0.9993

FINAL SINGLE POINT ENERGY       -15.896046011428

DIPOLE MOMENT
-------------

Method             : SCF
Type of density    : Electron Density
Multiplicity       :   1
Irrep              :   0
Energy             :   -15.8960460114284654 Eh
Basis              : AO
                                X                 Y                 Z
Electronic contribution:      0.000000064      -0.000000034      -0.000000044
Nuclear contribution   :     -0.000000035       0.000000021       0.000000032
                        -----------------------------------------
Total Dipole Moment    :      0.000000029      -0.000000013      -0.000000011
                        -----------------------------------------
Magnitude (a.u.)       :      0.000000034
Magnitude (Debye)      :      0.000000086

Rotational constants in cm-1:             0.000000             4.720728             4.720728
Rotational constants in MHz :             0.000000        141523.858207        141523.858207

                             ****ORCA TERMINATED NORMALLY****
TOTAL RUN TIME: 0 days 0 hours 0 minutes 3 seconds 318 msec
