                         Program Version 6.1.0  -  RELEASE   -
|  1> ! B3LYP 6-31G* Opt TightSCF
|  2>
|  3> * xyz 0 1
|  4> S       0.000000    0.000000    0.000000
|  5> H       0.950000    0.000000    0.300000
|  6> H      -0.950000    0.000000    0.300000
|  7> *
|  8>
|  9>                          ****END OF INPUT****
 Total Charge           Charge          ....    0
 Multiplicity           Mult            ....    1
 Number of Electrons    NEL             ....   18
FINAL SINGLE POINT ENERGY      -399.017710739633
FINAL SINGLE POINT ENERGY      -399.170387138911
FINAL SINGLE POINT ENERGY      -399.248250465115
FINAL SINGLE POINT ENERGY      -399.299461582538
FINAL SINGLE POINT ENERGY      -399.313063499077
FINAL SINGLE POINT ENERGY      -399.314030079558
FINAL SINGLE POINT ENERGY      -399.314159035284
FINAL SINGLE POINT ENERGY      -399.314294143369
FINAL SINGLE POINT ENERGY      -399.314309398431
FINAL SINGLE POINT ENERGY      -399.314311772007
                    ***********************HURRAY********************

CARTESIAN COORDINATES (ANGSTROEM)
---------------------------------
  S      0.000000    0.000000   -0.420640
  H      0.977253    0.000000    0.510320
  H     -0.977253    0.000000    0.510320

 Multiplicity           Mult            ....    1
 Number of Electrons    NEL             ....   18
 Basis Dimension        Dim             ....   22

ORBITAL ENERGIES
----------------

  NO   OCC          E(Eh)            E(eV)
   0   2.0000     -88.860717     -2418.0230
   1   2.0000      -7.941939      -216.1111
   2   2.0000      -5.905280      -160.6909
   3   2.0000      -5.902351      -160.6111
   4   2.0000      -5.896052      -160.4397
   5   2.0000      -0.744929       -20.2706
   6   2.0000      -0.448939       -12.2162
   7   2.0000      -0.364661        -9.9229
   8   2.0000      -0.258139        -7.0243
   9   0.0000       0.022633         0.6159
  10   0.0000       0.058658         1.5962
  11   0.0000       0.318154         8.6574
  12   0.0000       0.335579         9.1316
  13   0.0000       0.349196         9.5021

MULLIKEN ATOMIC CHARGES
-----------------------
   0 S :   -0.235369
   1 H :    0.117685
   2 H :    0.117685
Sum of atomic charges:   -0.0000000

LOEWDIN ATOMIC CHARGES
----------------------
   0 S :   -0.226029
   1 H :    0.113014
   2 H :    0.113014

  Mayer bond orders larger than 0.100000
B(  0-S ,  1-H ) :   0.9514 B(  0-S ,  2-H ) :   0.9514

FINAL SINGLE POINT ENERGY      -399.314310224226

DIPOLE MOMENT
-------------

Method             : SCF
Type of density    : Electron Density
Multiplicity       :   1
Irrep              :   0
Energy             :  -399.3143102242258919 Eh
Basis              : AO
                                X                 Y                 Z
Electronic contribution:      0.000000039      -0.000000001      -1.084283956
Nuclear contribution   :     -0.000000044       0.000000000       1.645058870
                        -----------------------------------------
Total Dipole Moment    :     -0.000000005      -0.000000001       0.560774914
                        -----------------------------------------
Magnitude (a.u.)       :      0.560774914
Magnitude (Debye)      :      1.425376556

Rotational constants in cm-1:            10.254850             8.755717             4.723087
Rotational constants in MHz :        307432.663203        262489.802421        141594.592053

                             ****ORCA TERMINATED NORMALLY****
TOTAL RUN TIME: 0 days 0 hours 0 minutes 12 seconds 267 msec
